# Following data format here https://lammps.sandia.gov/doc/2001/data_format.html

4 atoms
5 bonds
10 angles
0 dihedrals
0 impropers

4 atom types # 1=default; 2=frozen; 3=input; 4=output
5 bond types # for simplification (e.g.random lattice) -> then define bond_coeff 
10 angle types # only one type -> see angle_coeff

-5.0 5.0 xlo xhi # BOX LIMITS (x,y,z)
-5.0 5.0 ylo yhi
-5.0 5.0 zlo zhi

Masses

1 1.0
2 1.0
3 1.0
4 1.0

Bond Coeffs

1 1.0 2.0000
2 1.0 2.82842
3 1.0 2.0000
4 1.0 2.0000
5 1.0 2.0000

Angle Coeffs

1 1.0  90.0 
2 1.0 270.0
3 1.0  45.0
4 1.0  45.0
5 1.0 270.0
6 1.0  90.0
7 1.0 270.0
8 1.0  45.0
9 1.0  45.0
10 1.0 270.0

Atoms # idx type x y z, type = 1 normal, 2 frozen, 3 input, 4 output

1 1  1.0  1.0 0.0
2 2 -1.0  1.0 0.0
3 3 -1.0 -1.0 0.0
4 4  1.0 -1.0 0.0 

Bonds 

1 1 1 2 
2 2 1 3
3 3 2 3 
4 4 1 4 
5 5 3 4 

Angles # 1 angle-type atom-1 atom-2 atom-3  (atom-2 is the center atom in angle)

1 1 1 2 3 #  90
2 2 3 2 1 # 270
3 3 2 3 1 #  45
4 4 1 3 4 #  45
5 5 2 3 4 # 270
6 6 3 4 1 #  90
7 7 1 4 3 # 270
8 8 4 1 3 #  45
9 9 2 1 3 #  45 
10 10 4 1 2 # 270
